 Gaussian 16, Revision C.01,
 Gaussian 16:  ES64L-G16RevC.01  3-Jul-2019

 ----------------------------------------------------------------------
 #P Opt(TS, NoEigenTest, CalcFC) Freq M062X/6-311++G(d,p) scrf=(smd,sol
 vent=PentylEthanoate)
 ----------------------------------------------------------------------

 -----
 OptTS
 -----
 Symbolic Z-matrix:
 Charge =  0 Multiplicity = 2

 SCF Done:  E(UM062X) =  -1105.72147827     A.U. after   23 cycles
 SCF Done:  E(UM062X) =  -1105.72173818     A.U. after   23 cycles
 SCF Done:  E(UM062X) =  -1105.72175930     A.U. after   23 cycles
 SCF Done:  E(UM062X) =  -1105.72174727     A.U. after   22 cycles
 SCF Done:  E(UM062X) =  -1105.72176043     A.U. after   21 cycles
 SCF Done:  E(UM062X) =  -1105.72176170     A.U. after   19 cycles
 SCF Done:  E(UM062X) =  -1105.72176222     A.U. after   17 cycles
 SCF Done:  E(UM062X) =  -1105.72176216     A.U. after   16 cycles
 SCF Done:  E(UM062X) =  -1105.71970634     A.U. after   24 cycles
 SCF Done:  E(UM062X) =  -1105.72149646     A.U. after   24 cycles
 SCF Done:  E(UM062X) =  -1105.72163036     A.U. after   22 cycles
 SCF Done:  E(UM062X) =  -1105.72175977     A.U. after   22 cycles
 SCF Done:  E(UM062X) =  -1105.72176192     A.U. after   18 cycles
 SCF Done:  E(UM062X) =  -1105.72176214     A.U. after   16 cycles
 SCF Done:  E(UM062X) =  -1105.72176223     A.U. after   15 cycles
 Optimization completed.
    -- Stationary point found.
 Normal termination of Gaussian 16 at Sun Aug 16 12:40:33 2020.

 ----------------------------------------------------------------------
 #P Geom=AllCheck Guess=TCheck SCRF=Check GenChk UM062X/6-311++G(d,p) F
 req
 ----------------------------------------------------------------------

 Structure from the checkpoint file:  "Opt.chk"
 -----
 OptTS
 -----
 Charge =  0 Multiplicity = 2

                         Standard orientation:
 ---------------------------------------------------------------------
 Center     Atomic      Atomic             Coordinates (Angstroms)
 Number     Number       Type             X           Y           Z
 ---------------------------------------------------------------------
      1         16           0       -0.165682    0.994798   -1.160008
      2          7           0       -0.280584   -1.206347    0.940887
      3          6           0        0.915984   -1.088951    0.262112
      4          6           0        1.072584   -0.206106   -0.814297
      5          6           0       -4.004913    0.041198   -0.523553
      6          6           0       -3.917900   -0.879593    0.523529
      7          6           0       -2.687465   -1.287428    1.008314
      8          6           0       -1.502777   -0.770675    0.466815
      9          6           0       -1.598498    0.169530   -0.568410
     10          6           0       -2.842941    0.564025   -1.064933
     11          6           0        2.012427   -1.878892    0.634589
     12          6           0        2.271388   -0.139115   -1.523573
     13          1           0       -4.969219    0.352839   -0.904212
     14          1           0       -4.820897   -1.289845    0.960124
     15          1           0       -2.622314   -2.013720    1.811380
     16          6           0        3.209048   -1.790677   -0.056049
     17          6           0        3.344545   -0.931126   -1.148621
     18          1           0        4.044402   -2.407801    0.253637
     19          1           0        4.279159   -0.873477   -1.691824
     20          1           0       -0.305876   -1.885004    1.690361
     21          1           0        1.905596   -2.561358    1.471055
     22          1           0        2.360091    0.555268   -2.352026
     23          1           0       -2.887870    1.292878   -1.866909
     24          8           0        0.845608    1.925575    1.710554
     25          8           0        0.248454    2.147446    0.203157
     26          6           0        2.233504    1.989912    1.571269
     27          1           0        2.652319    1.949225    2.585123
     28          1           0        2.642474    1.144491    1.003337
     29          1           0        2.554736    2.927377    1.101036
 ---------------------------------------------------------------------

 SCF Done:  E(UM062X) =  -1105.72176223     A.U. after    2 cycles

 The electronic state is 2-A.
 Alpha  occ. eigenvalues --  -89.98540 -19.63554 -19.62260 -14.79488 -10.61391
 Alpha  occ. eigenvalues --  -10.61290 -10.58844 -10.58840 -10.56357 -10.56264
 Alpha  occ. eigenvalues --  -10.55747 -10.55593 -10.55553 -10.55425 -10.55070
 Alpha  occ. eigenvalues --  -10.54858 -10.54720  -8.34424  -6.26656  -6.26417
 Alpha  occ. eigenvalues --   -6.26148  -1.14439  -1.09800  -1.02828  -0.98562
 Alpha  occ. eigenvalues --   -0.96816  -0.91526  -0.87598  -0.86266  -0.83639
 Alpha  occ. eigenvalues --   -0.79144  -0.73570  -0.73108  -0.72698  -0.69713
 Alpha  occ. eigenvalues --   -0.65343  -0.63685  -0.62070  -0.56954  -0.56326
 Alpha  occ. eigenvalues --   -0.54488  -0.54414  -0.54100  -0.52345  -0.51118
 Alpha  occ. eigenvalues --   -0.50915  -0.50631  -0.49520  -0.48699  -0.45933
 Alpha  occ. eigenvalues --   -0.45751  -0.45001  -0.44227  -0.42940  -0.42043
 Alpha  occ. eigenvalues --   -0.41340  -0.41279  -0.37996  -0.34982  -0.34242
 Alpha  occ. eigenvalues --   -0.32897  -0.32068  -0.31209  -0.26854  -0.21046
 Alpha virt. eigenvalues --   -0.01192  -0.00731  -0.00111   0.00578   0.00833
 Alpha virt. eigenvalues --    0.00927   0.01967   0.02176   0.02258   0.02827
 Alpha virt. eigenvalues --    0.03711   0.04083   0.04224   0.04697   0.05328

  Beta  occ. eigenvalues --  -89.98184 -19.62749 -19.61536 -14.79442 -10.61383
  Beta  occ. eigenvalues --  -10.61268 -10.58876 -10.58858 -10.56348 -10.56241
  Beta  occ. eigenvalues --  -10.55738 -10.55574 -10.55553 -10.55433 -10.55091
  Beta  occ. eigenvalues --  -10.54862 -10.54732  -8.34303  -6.26292  -6.26092
  Beta  occ. eigenvalues --   -6.25692  -1.11879  -1.09573  -1.00765  -0.98520
  Beta  occ. eigenvalues --   -0.96283  -0.90750  -0.87556  -0.86222  -0.83539
  Beta  occ. eigenvalues --   -0.78570  -0.73407  -0.73051  -0.72078  -0.69684
  Beta  occ. eigenvalues --   -0.65170  -0.63572  -0.62021  -0.56288  -0.56231
  Beta  occ. eigenvalues --   -0.54378  -0.54033  -0.53204  -0.51270  -0.51076
  Beta  occ. eigenvalues --   -0.50848  -0.50443  -0.48925  -0.47844  -0.45625
  Beta  occ. eigenvalues --   -0.45423  -0.44484  -0.42928  -0.42725  -0.41749
  Beta  occ. eigenvalues --   -0.41013  -0.40283  -0.35592  -0.33781  -0.33352
  Beta  occ. eigenvalues --   -0.32672  -0.31645  -0.29661  -0.25700
  Beta virt. eigenvalues --   -0.04492  -0.00763  -0.00202   0.00193   0.00635
  Beta virt. eigenvalues --    0.00906   0.00989   0.02127   0.02242   0.02512
  Beta virt. eigenvalues --    0.03632   0.03827   0.04106   0.04213   0.04803

 Mulliken charges and spin densities:
               1          2
     1  S   -0.115405   0.549432
     2  N    0.188490   0.017960
     3  C   -0.404817  -0.052996
     4  C    0.536214  -0.244904
     5  C   -0.360438  -0.009260
     6  C   -0.455058   0.044463
     7  C   -0.774900  -0.009068
     8  C   -0.394983   0.018755
     9  C    1.031492  -0.210791
    10  C   -0.318946   0.135477
    11  C   -0.497024   0.028513
    12  C    0.228061   0.195820
    13  H    0.248540   0.000191
    14  H    0.249121  -0.001274
    15  H    0.224237   0.000157
    16  C   -0.503731   0.031993
    17  C   -0.251146  -0.030438
    18  H    0.253079  -0.000451
    19  H    0.258982  -0.001589
    20  H    0.353076  -0.002900
    21  H    0.241020   0.000573
    22  H    0.255369   0.010129
    23  H    0.240017   0.000387
    24  O   -0.140823   0.361602
    25  O   -0.174374   0.148780
    26  C   -0.347927  -0.012856
    27  H    0.174351   0.019526
    28  H    0.091232   0.013370
    29  H    0.166291  -0.000600
 Sum of Mulliken charges =   0.00000   1.00000

 Dipole moment (field-independent basis, Debye):
    X=             -0.1381    Y=             -6.6467    Z=             -1.1175  Tot=              6.7414
 Quadrupole moment (field-independent basis, Debye-Ang):
   XX=            -83.2047   YY=           -111.4614   ZZ=           -103.2635
   XY=             -1.7649   XZ=             -1.7920   YZ=            -16.5595

  Exact polarizability:     364.103       1.054     223.308       8.319     -20.746     226.064
 Approx polarizability:     314.653      -6.652     221.861       2.955     -34.068     243.799

 ******    1 imaginary frequencies (negative Signs) ******

                      1                      2                      3
                      A                      A                      A
 Frequencies --  -1052.7648                37.4919                51.7171
 Red. masses --     15.2967                 5.4207                 4.3376
 Frc consts  --      9.9887                 0.0045                 0.0068
 IR Inten    --   1257.5875                 3.3673                 6.1298

                      4                      5                      6
                      A                      A                      A
 Frequencies --     65.5227                87.9522               113.6551
 Red. masses --      5.3032                 2.4240                 3.3420
 Frc consts  --      0.0134                 0.0110                 0.0254
 IR Inten    --      2.1351                 3.8617                 2.8118

                      7                      8                      9
                      A                      A                      A
 Frequencies --    145.3944               167.3783               195.7943
 Red. masses --      3.3508                 3.1250                 2.2047
 Frc consts  --      0.0417                 0.0516                 0.0498
 IR Inten    --      2.1833                 5.4132                10.1168

                     10                     11                     12
                      A                      A                      A
 Frequencies --    225.1963               254.2781               264.4813
 Red. masses --      3.9287                 4.9230                 5.1286
 Frc consts  --      0.1174                 0.1875                 0.2114
 IR Inten    --      1.7177                 2.7947                 0.1929

                     13                     14                     15
                      A                      A                      A
 Frequencies --    330.4631               368.6075               382.9496
 Red. masses --      5.2096                 6.6516                 5.0132
 Frc consts  --      0.3352                 0.5325                 0.4332
 IR Inten    --      9.5123                 6.9754                 5.0367

                     16                     17                     18
                      A                      A                      A
 Frequencies --    388.2315               442.2324               452.3964
 Red. masses --      4.6395                 4.1183                 6.8270
 Frc consts  --      0.4120                 0.4745                 0.8232
 IR Inten    --      2.4111                40.8441                 7.1403

                     19                     20                     21
                      A                      A                      A
 Frequencies --    464.8729               483.2083               508.1263
 Red. masses --      3.9971                 5.4933                 1.4225
 Frc consts  --      0.5089                 0.7557                 0.2164
 IR Inten    --     35.7788                 3.3951                22.2803

                     22                     23                     24
                      A                      A                      A
 Frequencies --    521.6510               534.8289               554.9636
 Red. masses --      5.6926                 3.7426                 3.7620
 Frc consts  --      0.9127                 0.6308                 0.6826
 IR Inten    --    139.0241                 3.7058                 2.2802

                     25                     26                     27
                      A                      A                      A
 Frequencies --    607.9440               663.7845               701.6676
 Red. masses --      6.9020                 5.6129                 6.3570
 Frc consts  --      1.5030                 1.4571                 1.8440
 IR Inten    --      8.3071                 6.1753                 1.3107

                     28                     29                     30
                      A                      A                      A
 Frequencies --    706.7906               727.6920               732.1580
 Red. masses --      5.6091                 4.4228                 4.5907
 Frc consts  --      1.6509                 1.3799                 1.4499
 IR Inten    --      1.2074                 1.2442                 2.0202

                     31                     32                     33
                      A                      A                      A
 Frequencies --    768.1607               771.1817               862.9130
 Red. masses --      1.2811                 1.2791                 4.0154
 Frc consts  --      0.4454                 0.4482                 1.7616
 IR Inten    --    228.7688                 7.5895                 0.5784

                     34                     35                     36
                      A                      A                      A
 Frequencies --    871.8780               875.5046               905.6615
 Red. masses --      1.4894                 1.4228                 5.2360
 Frc consts  --      0.6671                 0.6426                 2.5304
 IR Inten    --      4.0514                 2.3511                21.6882

                     37                     38                     39
                      A                      A                      A
 Frequencies --    973.2321               974.0776              1009.0377
 Red. masses --      1.3547                 1.3565                 1.2992
 Frc consts  --      0.7560                 0.7583                 0.7794
 IR Inten    --      1.3165                 1.9762                 0.1238

                     40                     41                     42
                      A                      A                      A
 Frequencies --   1011.2459              1047.6030              1064.3027
 Red. masses --      1.3006                 3.8269                 3.1083
 Frc consts  --      0.7836                 2.4745                 2.0745
 IR Inten    --      0.1472                60.8964                23.8094

                     43                     44                     45
                      A                      A                      A
 Frequencies --   1067.1715              1088.5238              1100.6884
 Red. masses --      2.6132                 2.4912                 3.7915
 Frc consts  --      1.7535                 1.7392                 2.7064
 IR Inten    --      4.5699                 0.2199                 1.9576

                     46                     47                     48
                      A                      A                      A
 Frequencies --   1155.2663              1164.1481              1172.3514
 Red. masses --      1.5891                 1.3970                 1.3650
 Frc consts  --      1.2496                 1.1155                 1.1053
 IR Inten    --     24.6680                28.5114                 7.3458

                     49                     50                     51
                      A                      A                      A
 Frequencies --   1173.7557              1174.7899              1179.6897
 Red. masses --      1.1408                 1.1271                 1.5236
 Frc consts  --      0.9260                 0.9165                 1.2493
 IR Inten    --      0.8122                 9.6866                22.5666

                     52                     53                     54
                      A                      A                      A
 Frequencies --   1256.6976              1281.9151              1284.5848
 Red. masses --      1.6084                 3.2372                 2.4987
 Frc consts  --      1.4966                 3.1342                 2.4294
 IR Inten    --     10.5904                23.7846                28.7748

                     55                     56                     57
                      A                      A                      A
 Frequencies --   1306.9828              1339.2244              1370.8470
 Red. masses --      1.4748                 6.3225                 3.1933
 Frc consts  --      1.4844                 6.6811                 3.5356
 IR Inten    --      4.0968                28.1588               116.5084

                     58                     59                     60
                      A                      A                      A
 Frequencies --   1442.1329              1445.4371              1464.3305
 Red. masses --      1.7161                 1.1468                 1.0460
 Frc consts  --      2.1028                 1.4117                 1.3214
 IR Inten    --     31.8746                20.2583                 5.7310

                     61                     62                     63
                      A                      A                      A
 Frequencies --   1486.8017              1504.6109              1511.0643
 Red. masses --      2.5803                 1.0720                 2.8507
 Frc consts  --      3.3607                 1.4298                 3.8350
 IR Inten    --     21.3823                27.7830               626.9729

                     64                     65                     66
                      A                      A                      A
 Frequencies --   1531.9905              1552.0223              1644.8183
 Red. masses --      2.8219                 2.4214                 5.0532
 Frc consts  --      3.9022                 3.4364                 8.0548
 IR Inten    --     30.3074               298.3796                30.0941

                     67                     68                     69
                      A                      A                      A
 Frequencies --   1647.7280              1656.7517              1676.1361
 Red. masses --      7.2208                 4.6099                 6.7710
 Frc consts  --     11.5507                 7.4551                11.2078
 IR Inten    --     28.6605               175.0849                26.9230

                     70                     71                     72
                      A                      A                      A
 Frequencies --   3006.5486              3072.6243              3075.7641
 Red. masses --      1.0284                 1.1044                 1.1025
 Frc consts  --      5.4768                 6.1430                 6.1454
 IR Inten    --    133.1382                58.4323                34.6505

                     73                     74                     75
                      A                      A                      A
 Frequencies --   3201.8077              3204.5915              3207.7453
 Red. masses --      1.0892                 1.0886                 1.0906
 Frc consts  --      6.5786                 6.5863                 6.6115
 IR Inten    --      2.9162                 1.2783                 0.9477

                     76                     77                     78
                      A                      A                      A
 Frequencies --   3207.9680              3218.5680              3219.6592
 Red. masses --      1.0909                 1.0938                 1.0942
 Frc consts  --      6.6148                 6.6759                 6.6828
 IR Inten    --      0.1773                 2.5981                 3.0721

                     79                     80                     81
                      A                      A                      A
 Frequencies --   3233.5743              3234.4582              3637.6470
 Red. masses --      1.0980                 1.0978                 1.0776
 Frc consts  --      6.7640                 6.7666                 8.4015
 IR Inten    --      3.3376                 4.4892               133.5063

 - Thermochemistry -
 -------------------
 Temperature   298.150 Kelvin.  Pressure   1.00000 Atm.
 Atom     1 has atomic number 16 and mass  31.97207

 Molecular mass:   246.05888 amu.
 Principal axes and moments of inertia in atomic units:
                           1         2         3
     Eigenvalues --  2419.367835259.235895824.65614
           X            0.99997   0.00659   0.00339
           Y           -0.00647   0.99935  -0.03535
           Z           -0.00362   0.03533   0.99937
 This molecule is an asymmetric top.
 Rotational symmetry number  1.
 Warning -- assumption of classical behavior for rotation
           may cause significant error
 Rotational temperatures (Kelvin)      0.03580     0.01647     0.01487
 Rotational constants (GHZ):           0.74596     0.34316     0.30985
    1 imaginary frequencies ignored.
 Zero-point vibrational energy     583285.1 (Joules/Mol)
                                  139.40847 (Kcal/Mol)
 Warning -- explicit consideration of  24 degrees of freedom as
           vibrations may cause significant error
 Vibrational temperatures:     53.94    74.41    94.27   126.54   163.52
          (Kelvin)            209.19   240.82   281.70   324.01   365.85
                              380.53   475.46   530.34   550.98   558.58
                              636.27   650.90   668.85   695.23   731.08
                              750.54   769.50   798.47   874.70   955.04
                             1009.54  1016.91  1046.99  1053.41  1105.21
                             1109.56  1241.54  1254.44  1259.66  1303.04
                             1400.26  1401.48  1451.78  1454.96  1507.27
                             1531.29  1535.42  1566.14  1583.65  1662.17
                             1674.95  1686.75  1688.77  1690.26  1697.31
                             1808.11  1844.39  1848.23  1880.46  1926.85
                             1972.34  2074.91  2079.66  2106.85  2139.18
                             2164.80  2174.08  2204.19  2233.01  2366.53
                             2370.71  2383.70  2411.59  4325.75  4420.82
                             4425.34  4606.69  4610.69  4615.23  4615.55
                             4630.80  4632.37  4652.39  4653.66  5233.76

 Zero-point correction=                           0.222162 (Hartree/Particle)
 Thermal correction to Energy=                    0.237102
 Thermal correction to Enthalpy=                  0.238047
 Thermal correction to Gibbs Free Energy=         0.178889
 Sum of electronic and zero-point Energies=          -1105.499601
 Sum of electronic and thermal Energies=             -1105.484660
 Sum of electronic and thermal Enthalpies=           -1105.483716
 Sum of electronic and thermal Free Energies=        -1105.542873

                     E (Thermal)             CV                S
                      KCal/Mol        Cal/Mol-Kelvin    Cal/Mol-Kelvin
 Total                  148.784             57.669            124.507
 Electronic               0.000              0.000              1.377
 Translational            0.889              2.981             42.402
 Rotational               0.889              2.981             32.672
 Vibrational            147.007             51.708             48.056
 Vibration     1          0.594              1.982              5.387
 Vibration     2          0.596              1.977              4.751
 Vibration     3          0.597              1.971              4.284
 Vibration     4          0.601              1.958              3.705
 Vibration     5          0.607              1.938              3.206
 Vibration     6          0.617              1.908              2.732
 Vibration     7          0.624              1.883              2.465
 Vibration     8          0.636              1.846              2.172
 Vibration     9          0.650              1.803              1.917
 Vibration    10          0.665              1.756              1.701
 Vibration    11          0.671              1.738              1.632
 Vibration    12          0.713              1.615              1.258
 Vibration    13          0.741              1.537              1.086
 Vibration    14          0.752              1.507              1.027
 Vibration    15          0.756              1.495              1.007
 Vibration    16          0.802              1.378              0.820
 Vibration    17          0.811              1.356              0.789
 Vibration    18          0.822              1.328              0.752
 Vibration    19          0.839              1.287              0.701
 Vibration    20          0.863              1.232              0.638
 Vibration    21          0.877              1.202              0.606
 Vibration    22          0.890              1.173              0.577
 Vibration    23          0.910              1.129              0.534
 Vibration    24          0.967              1.015              0.436

 Optimization completed.
    -- Stationary point found.
 Normal termination of Gaussian 16 at Sun Aug 16 13:20:52 2020.
